3
Properties=species:S:1:pos:R:3:forces:R:3 charge_state=1 total_charge=1 energy=2.2307496353897167 pbc="F F F"
Ag      -0.11118801       0.03189022       0.02790413      -4.21443416      -4.00601184       0.78803987
Ag       2.10105153      -0.05808781      -0.05251698       3.23833870      -2.54241318       0.24862581
Ag       0.94286198       1.63964252      -0.26125490       0.97609546       6.54842502      -1.03666568
3
Properties=species:S:1:pos:R:3:forces:R:3 charge_state=1 total_charge=1 energy=3.270743808205827 pbc="F F F"
Ag       0.09503697      -0.10128311       0.03142473      -9.29057554      -2.74254441      -0.22528039
Ag       1.90919759      -0.14123037       0.14656488       8.95396358      -2.31630136       0.83028590
Ag       0.97742237       1.73880363      -0.14247482       0.33661196       5.05884577      -0.60500550
3
Properties=species:S:1:pos:R:3:forces:R:3 charge_state=1 total_charge=1 energy=2.3505667825710357 pbc="F F F"
Ag       0.01222192      -0.05154357      -0.06002539      -4.72913525      -3.97641553      -0.00984649
Ag       2.09474398       0.02910340      -0.06355597       4.51801966      -2.32610251      -0.01943807
Ag       0.89784478       1.71587527      -0.05336488       0.21111559       6.30251804       0.02928456
3
Properties=species:S:1:pos:R:3:forces:R:3 charge_state=1 total_charge=1 energy=0.9887097186232641 pbc="F F F"
Ag      -0.00055279       0.08225449      -0.12208436      -2.56450319      -1.41107858      -0.11252701
Ag       2.18755303      -0.19596701      -0.13281860       1.84669359      -0.67325037      -0.04063519
Ag       1.10301946       1.95023503       0.01713683       0.71780960       2.08432895       0.15316220
3
Properties=species:S:1:pos:R:3:forces:R:3 charge_state=1 total_charge=1 energy=0.8319996380149202 pbc="F F F"
Ag      -0.10090853      -0.15832942       0.07737004      -1.95181614      -0.85801933       0.12082699
Ag       2.11285250      -0.13466781      -0.08805913       1.93364103      -0.73178625      -0.16699180
Ag       0.97027810       1.88983126       0.05821228       0.01817511       1.58980558       0.04616482
3
Properties=species:S:1:pos:R:3:forces:R:3 charge_state=1 total_charge=1 energy=2.0219163682579167 pbc="F F F"
Ag       0.08877485      -0.08392175      -0.03092124      -3.64902961      -2.57957164       0.13311653
Ag       2.19979301       0.09755451      -0.04791742       4.45218581      -2.81514010       0.11056144
Ag       1.06476744       1.76575488      -0.11962066      -0.80315620       5.39471175      -0.24367797
3
Properties=species:S:1:pos:R:3:forces:R:3 charge_state=1 total_charge=1 energy=0.8483599016410732 pbc="F F F"
Ag       0.08347954       0.02965614      -0.10378299      -1.56446319      -0.47508554      -0.20115884
Ag       2.32575296       0.09729635       0.07955955       1.99848244      -1.31674947      -0.07228596
Ag       1.31621009       2.05454407       0.33722963      -0.43401925       1.79183501       0.27344480
3
Properties=species:S:1:pos:R:3:forces:R:3 charge_state=1 total_charge=1 energy=0.4186093573472571 pbc="F F F"
Ag      -0.09203908       0.00870471      -0.02990074      -0.52086410      -0.14786784       0.00051679
Ag       2.34250941      -0.19875689      -0.02196719       0.41811078      -0.04930734       0.00152004
Ag       1.20237792       2.16851535      -0.05182702       0.10275332       0.19717518      -0.00203682
3
Properties=species:S:1:pos:R:3:forces:R:3 charge_state=1 total_charge=1 energy=0.5386801759784974 pbc="F F F"
Ag      -0.02121614      -0.04268688       0.05014483      -0.51250494      -0.29498915       0.01363705
Ag       2.44915200       0.02571169       0.03145129       0.78743543      -0.79380410       0.02238690
Ag       1.30385288       2.03828127      -0.03092885      -0.27493049       1.08879325      -0.03602395
3
Properties=species:S:1:pos:R:3:forces:R:3 charge_state=1 total_charge=1 energy=0.5374196413712464 pbc="F F F"
Ag       0.06731255      -0.03921082      -0.14635149      -0.67531403      -0.60457220      -0.05042567
Ag       2.52961203       0.02610553       0.00051135       0.67705173      -0.50664889       0.03130884
Ag       1.22654129       2.02352644      -0.04206453      -0.00173770       1.11122109       0.01911683
3
Properties=species:S:1:pos:R:3:forces:R:3 charge_state=1 total_charge=1 energy=0.7285633215048 pbc="F F F"
Ag       0.04529363      -0.01660609       0.02149388      -1.65347053      -0.61249162      -0.02467350
Ag       2.29776851      -0.09430568       0.14039587       1.59509811      -0.70796249       0.14525827
Ag       1.24814492       1.99771305      -0.10725318       0.05837242       1.32045411      -0.12058478
3
Properties=species:S:1:pos:R:3:forces:R:3 charge_state=1 total_charge=1 energy=0.37537893458342664 pbc="F F F"
Ag      -0.09925862       0.00602302       0.24632421      -0.10258473      -0.06247069       0.01134122
Ag       2.48076390       0.03015473      -0.00347118       0.08043978      -0.01833182      -0.00735093
Ag       1.13313220       2.27934579       0.07519330       0.02214495       0.08080251      -0.00399029
3
Properties=species:S:1:pos:R:3:forces:R:3 charge_state=1 total_charge=1 energy=0.4348247034011328 pbc="F F F"
Ag      -0.08018278       0.13840157       0.14052053       0.18219225      -0.01035693      -0.00823091
Ag       2.80589924      -0.08806408       0.00768949      -0.27693265       0.17281882       0.01866888
Ag       1.28399009       2.40171734       0.17066050       0.09474040      -0.16246188      -0.01043798
3
Properties=species:S:1:pos:R:3:forces:R:3 charge_state=1 total_charge=1 energy=0.44037560154552313 pbc="F F F"
Ag       0.08735894      -0.15506634       0.00685630      -0.23499639       0.08162304       0.01013869
Ag       2.56043630       0.04735924      -0.09194242       0.49292279      -0.37432520      -0.02277839
Ag       1.48832677       2.23107575      -0.03220615      -0.25792640       0.29270217       0.01263970
3
Properties=species:S:1:pos:R:3:forces:R:3 charge_state=1 total_charge=1 energy=0.38097627111418975 pbc="F F F"
Ag      -0.03567450       0.05561218       0.10438606       0.10007475      -0.02627178       0.00970384
Ag       2.71931148       0.13638865       0.25391627      -0.09393955      -0.03976448       0.00031505
Ag       1.30088424       2.28881441      -0.14400414      -0.00613519       0.06603626      -0.01001888
3
Properties=species:S:1:pos:R:3:forces:R:3 charge_state=1 total_charge=1 energy=0.4041526407392486 pbc="F F F"
Ag       0.11907273       0.05219416       0.02969847       0.16301895       0.10784652      -0.00822595
Ag       2.85838262       0.03464482      -0.06800247      -0.18278620       0.13655698       0.00352083
Ag       1.43989204       2.48304589      -0.07143514       0.01976724      -0.24440350       0.00470512
3
Properties=species:S:1:pos:R:3:forces:R:3 charge_state=1 total_charge=1 energy=0.4378626827466172 pbc="F F F"
Ag       0.01748330      -0.12168549       0.10493474       0.25815270       0.13623288      -0.01443193
Ag       2.96584390       0.07345011      -0.09544973      -0.27275282       0.10041804       0.02163321
Ag       1.34154872       2.34069584       0.07699774       0.01460013      -0.23665091      -0.00720128
3
Properties=species:S:1:pos:R:3:forces:R:3 charge_state=1 total_charge=1 energy=0.40825239726378526 pbc="F F F"
Ag       0.12683895       0.08220602       0.18967930       0.08025040       0.01796513      -0.00861709
Ag       2.80879452      -0.07537362      -0.08895144      -0.16296212       0.16482335       0.01501498
Ag       1.33508564       2.44602847       0.03411520       0.08271172      -0.18278848      -0.00639789
3
Properties=species:S:1:pos:R:3:forces:R:3 charge_state=1 total_charge=1 energy=0.5397093631459529 pbc="F F F"
Ag       0.12093820       0.05379600       0.27344222       0.26495114       0.15877522      -0.03486769
Ag       3.00937654      -0.14064053      -0.00345297      -0.26854645       0.16527882       0.01785185
Ag       1.40369844       2.69579421       0.00419801       0.00359531      -0.32405404       0.01701584
3
Properties=species:S:1:pos:R:3:forces:R:3 charge_state=1 total_charge=1 energy=0.5292271925526382 pbc="F F F"
Ag      -0.01372718      -0.02234628       0.07140005       0.28297881       0.16400999      -0.00913076
Ag       3.04732376      -0.00728289      -0.08467937      -0.30525922       0.16259181       0.02091092
Ag       1.34851528       2.55342472       0.08563988       0.02228040      -0.32660180      -0.01178015
3
Properties=species:S:1:pos:R:3:forces:R:3 charge_state=1 total_charge=1 energy=0.5466827672095649 pbc="F F F"
Ag       0.07101092       0.00924789       0.06300749       0.29480996       0.17021077      -0.00743643
Ag       3.17629375       0.02309537      -0.08089369      -0.29694967       0.16724454       0.01997410
Ag       1.60574235       2.60321230       0.08724472       0.00213971      -0.33745531      -0.01253767
3
Properties=species:S:1:pos:R:3:forces:R:3 charge_state=1 total_charge=1 energy=0.6293976658534869 pbc="F F F"
Ag       0.10661985      -0.13776694      -0.09378250       0.26424409       0.12361368       0.01692347
Ag       3.21817019       0.05137860       0.05150477      -0.27484076       0.16750438      -0.00497973
Ag       1.96860648       2.79950283       0.11355656       0.01059667      -0.29111806      -0.01194374
3
Properties=species:S:1:pos:R:3:forces:R:3 charge_state=1 total_charge=1 energy=0.5415245060761227 pbc="F F F"
Ag       0.02322962       0.01761809      -0.11525654       0.29422253       0.16914668      -0.00208959
Ag       3.01658983       0.01650228      -0.08559289      -0.28904392       0.17374141      -0.00799910
Ag       1.57936972       2.68894750      -0.17884965      -0.00517862      -0.34288809       0.01008868
3
Properties=species:S:1:pos:R:3:forces:R:3 charge_state=1 total_charge=1 energy=0.6100385716148984 pbc="F F F"
Ag       0.03573045      -0.04719319       0.10889506       0.28847406       0.15938729      -0.01624998
Ag       3.17309467      -0.10777448      -0.07153037      -0.28231221       0.16944646       0.01657316
Ag       1.65129311       2.66937712       0.02164586      -0.00616185      -0.32883375      -0.00032318
3
Properties=species:S:1:pos:R:3:forces:R:3 charge_state=1 total_charge=1 energy=0.615661122945123 pbc="F F F"
Ag       0.23890360       0.18434138       0.13634355       0.28557524       0.15947582      -0.01707431
Ag       3.41620993       0.00151433       0.04420740      -0.27453346       0.16139550       0.00068293
Ag       1.77146864       2.82389437      -0.04444987      -0.01104178      -0.32087131       0.01639138
3
Properties=species:S:1:pos:R:3:forces:R:3 charge_state=1 total_charge=1 energy=0.7585033983035367 pbc="F F F"
Ag      -0.16691324       0.05049873       0.08657552       0.21881534       0.10890883      -0.00777900
Ag       3.21330369      -0.03345012      -0.04749453      -0.21312448       0.11993018       0.00935540
Ag       1.60133374       3.06329677       0.04049817      -0.00569086      -0.22883901      -0.00157640
3
Properties=species:S:1:pos:R:3:forces:R:3 charge_state=1 total_charge=1 energy=0.7680713903045681 pbc="F F F"
Ag       0.03772963       0.16513510      -0.13268318       0.21079048       0.13466196       0.00663437
Ag       3.51770491      -0.07307414      -0.12799197      -0.18092944       0.09195644       0.00314528
Ag       1.64292747       3.07395191      -0.00194421      -0.02986104      -0.22661840      -0.00977966
3
Properties=species:S:1:pos:R:3:forces:R:3 charge_state=1 total_charge=1 energy=0.857254511685323 pbc="F F F"
Ag      -0.09325917      -0.02525682      -0.12477832       0.12449027       0.07545698       0.00124673
Ag       3.66324113      -0.14301414      -0.04400445      -0.11306992       0.06148806      -0.00347546
Ag       1.76307406       3.17521624      -0.14358622      -0.01142034      -0.13694504       0.00222874
3
Properties=species:S:1:pos:R:3:forces:R:3 charge_state=1 total_charge=1 energy=0.7795411562218217 pbc="F F F"
Ag       0.04049755       0.09097382      -0.02024575       0.20060487       0.12870559      -0.00045245
Ag       3.50608966       0.06471627       0.01260948      -0.18869432       0.08428974      -0.00328687
Ag       1.56026230       3.15914299      -0.06151337      -0.01191055      -0.21299534       0.00373932
3
Properties=species:S:1:pos:R:3:forces:R:3 charge_state=1 total_charge=1 energy=0.7317686281042977 pbc="F F F"
Ag       0.21113176      -0.01517851       0.05883172       0.23754264       0.14236134      -0.00270542
Ag       3.52809919      -0.06226995      -0.02081223      -0.22753981       0.10555457       0.00756863
Ag       1.70069991       2.97215244       0.08496021      -0.01000283      -0.24791591      -0.00486321
3
Properties=species:S:1:pos:R:3:forces:R:3 charge_state=-1 total_charge=-1 energy=2.2307496353897167 pbc="F F F"
Ag      -0.11118801       0.03189022       0.02790413      -4.21443416      -4.00601184       0.78803987
Ag       2.10105153      -0.05808781      -0.05251698       3.23833870      -2.54241318       0.24862581
Ag       0.94286198       1.63964252      -0.26125490       0.97609546       6.54842502      -1.03666568
3
Properties=species:S:1:pos:R:3:forces:R:3 charge_state=-1 total_charge=-1 energy=3.270743808205827 pbc="F F F"
Ag       0.09503697      -0.10128311       0.03142473      -9.29057554      -2.74254441      -0.22528039
Ag       1.90919759      -0.14123037       0.14656488       8.95396358      -2.31630136       0.83028590
Ag       0.97742237       1.73880363      -0.14247482       0.33661196       5.05884577      -0.60500550
3
Properties=species:S:1:pos:R:3:forces:R:3 charge_state=-1 total_charge=-1 energy=2.3505667825710357 pbc="F F F"
Ag       0.01222192      -0.05154357      -0.06002539      -4.72913525      -3.97641553      -0.00984649
Ag       2.09474398       0.02910340      -0.06355597       4.51801966      -2.32610251      -0.01943807
Ag       0.89784478       1.71587527      -0.05336488       0.21111559       6.30251804       0.02928456
3
Properties=species:S:1:pos:R:3:forces:R:3 charge_state=-1 total_charge=-1 energy=0.9887097186232641 pbc="F F F"
Ag      -0.00055279       0.08225449      -0.12208436      -2.56450319      -1.41107858      -0.11252701
Ag       2.18755303      -0.19596701      -0.13281860       1.84669359      -0.67325037      -0.04063519
Ag       1.10301946       1.95023503       0.01713683       0.71780960       2.08432895       0.15316220
3
Properties=species:S:1:pos:R:3:forces:R:3 charge_state=-1 total_charge=-1 energy=0.8319996380149202 pbc="F F F"
Ag      -0.10090853      -0.15832942       0.07737004      -1.95181614      -0.85801933       0.12082699
Ag       2.11285250      -0.13466781      -0.08805913       1.93364103      -0.73178625      -0.16699180
Ag       0.97027810       1.88983126       0.05821228       0.01817511       1.58980558       0.04616482
3
Properties=species:S:1:pos:R:3:forces:R:3 charge_state=-1 total_charge=-1 energy=2.0219163682579167 pbc="F F F"
Ag       0.08877485      -0.08392175      -0.03092124      -3.64902961      -2.57957164       0.13311653
Ag       2.19979301       0.09755451      -0.04791742       4.45218581      -2.81514010       0.11056144
Ag       1.06476744       1.76575488      -0.11962066      -0.80315620       5.39471175      -0.24367797
3
Properties=species:S:1:pos:R:3:forces:R:3 charge_state=-1 total_charge=-1 energy=0.8483599016410732 pbc="F F F"
Ag       0.08347954       0.02965614      -0.10378299      -1.56446319      -0.47508554      -0.20115884
Ag       2.32575296       0.09729635       0.07955955       1.99848244      -1.31674947      -0.07228596
Ag       1.31621009       2.05454407       0.33722963      -0.43401925       1.79183501       0.27344480
3
Properties=species:S:1:pos:R:3:forces:R:3 charge_state=-1 total_charge=-1 energy=0.4186093573472571 pbc="F F F"
Ag      -0.09203908       0.00870471      -0.02990074      -0.52086410      -0.14786784       0.00051679
Ag       2.34250941      -0.19875689      -0.02196719       0.41811078      -0.04930734       0.00152004
Ag       1.20237792       2.16851535      -0.05182702       0.10275332       0.19717518      -0.00203682
3
Properties=species:S:1:pos:R:3:forces:R:3 charge_state=-1 total_charge=-1 energy=0.5386801759784974 pbc="F F F"
Ag      -0.02121614      -0.04268688       0.05014483      -0.51250494      -0.29498915       0.01363705
Ag       2.44915200       0.02571169       0.03145129       0.78743543      -0.79380410       0.02238690
Ag       1.30385288       2.03828127      -0.03092885      -0.27493049       1.08879325      -0.03602395
3
Properties=species:S:1:pos:R:3:forces:R:3 charge_state=-1 total_charge=-1 energy=0.5374196413712464 pbc="F F F"
Ag       0.06731255      -0.03921082      -0.14635149      -0.67531403      -0.60457220      -0.05042567
Ag       2.52961203       0.02610553       0.00051135       0.67705173      -0.50664889       0.03130884
Ag       1.22654129       2.02352644      -0.04206453      -0.00173770       1.11122109       0.01911683
3
Properties=species:S:1:pos:R:3:forces:R:3 charge_state=-1 total_charge=-1 energy=0.7285633215048 pbc="F F F"
Ag       0.04529363      -0.01660609       0.02149388      -1.65347053      -0.61249162      -0.02467350
Ag       2.29776851      -0.09430568       0.14039587       1.59509811      -0.70796249       0.14525827
Ag       1.24814492       1.99771305      -0.10725318       0.05837242       1.32045411      -0.12058478
3
Properties=species:S:1:pos:R:3:forces:R:3 charge_state=-1 total_charge=-1 energy=0.37537893458342664 pbc="F F F"
Ag      -0.09925862       0.00602302       0.24632421      -0.10258473      -0.06247069       0.01134122
Ag       2.48076390       0.03015473      -0.00347118       0.08043978      -0.01833182      -0.00735093
Ag       1.13313220       2.27934579       0.07519330       0.02214495       0.08080251      -0.00399029
3
Properties=species:S:1:pos:R:3:forces:R:3 charge_state=-1 total_charge=-1 energy=0.4348247034011328 pbc="F F F"
Ag      -0.08018278       0.13840157       0.14052053       0.18219225      -0.01035693      -0.00823091
Ag       2.80589924      -0.08806408       0.00768949      -0.27693265       0.17281882       0.01866888
Ag       1.28399009       2.40171734       0.17066050       0.09474040      -0.16246188      -0.01043798
3
Properties=species:S:1:pos:R:3:forces:R:3 charge_state=-1 total_charge=-1 energy=0.44037560154552313 pbc="F F F"
Ag       0.08735894      -0.15506634       0.00685630      -0.23499639       0.08162304       0.01013869
Ag       2.56043630       0.04735924      -0.09194242       0.49292279      -0.37432520      -0.02277839
Ag       1.48832677       2.23107575      -0.03220615      -0.25792640       0.29270217       0.01263970
3
Properties=species:S:1:pos:R:3:forces:R:3 charge_state=-1 total_charge=-1 energy=0.38097627111418975 pbc="F F F"
Ag      -0.03567450       0.05561218       0.10438606       0.10007475      -0.02627178       0.00970384
Ag       2.71931148       0.13638865       0.25391627      -0.09393955      -0.03976448       0.00031505
Ag       1.30088424       2.28881441      -0.14400414      -0.00613519       0.06603626      -0.01001888
3
Properties=species:S:1:pos:R:3:forces:R:3 charge_state=-1 total_charge=-1 energy=0.4041526407392486 pbc="F F F"
Ag       0.11907273       0.05219416       0.02969847       0.16301895       0.10784652      -0.00822595
Ag       2.85838262       0.03464482      -0.06800247      -0.18278620       0.13655698       0.00352083
Ag       1.43989204       2.48304589      -0.07143514       0.01976724      -0.24440350       0.00470512
3
Properties=species:S:1:pos:R:3:forces:R:3 charge_state=-1 total_charge=-1 energy=0.4378626827466172 pbc="F F F"
Ag       0.01748330      -0.12168549       0.10493474       0.25815270       0.13623288      -0.01443193
Ag       2.96584390       0.07345011      -0.09544973      -0.27275282       0.10041804       0.02163321
Ag       1.34154872       2.34069584       0.07699774       0.01460013      -0.23665091      -0.00720128
3
Properties=species:S:1:pos:R:3:forces:R:3 charge_state=-1 total_charge=-1 energy=0.40825239726378526 pbc="F F F"
Ag       0.12683895       0.08220602       0.18967930       0.08025040       0.01796513      -0.00861709
Ag       2.80879452      -0.07537362      -0.08895144      -0.16296212       0.16482335       0.01501498
Ag       1.33508564       2.44602847       0.03411520       0.08271172      -0.18278848      -0.00639789
3
Properties=species:S:1:pos:R:3:forces:R:3 charge_state=-1 total_charge=-1 energy=0.5397093631459529 pbc="F F F"
Ag       0.12093820       0.05379600       0.27344222       0.26495114       0.15877522      -0.03486769
Ag       3.00937654      -0.14064053      -0.00345297      -0.26854645       0.16527882       0.01785185
Ag       1.40369844       2.69579421       0.00419801       0.00359531      -0.32405404       0.01701584
3
Properties=species:S:1:pos:R:3:forces:R:3 charge_state=-1 total_charge=-1 energy=0.5292271925526382 pbc="F F F"
Ag      -0.01372718      -0.02234628       0.07140005       0.28297881       0.16400999      -0.00913076
Ag       3.04732376      -0.00728289      -0.08467937      -0.30525922       0.16259181       0.02091092
Ag       1.34851528       2.55342472       0.08563988       0.02228040      -0.32660180      -0.01178015
3
Properties=species:S:1:pos:R:3:forces:R:3 charge_state=-1 total_charge=-1 energy=0.5466827672095649 pbc="F F F"
Ag       0.07101092       0.00924789       0.06300749       0.29480996       0.17021077      -0.00743643
Ag       3.17629375       0.02309537      -0.08089369      -0.29694967       0.16724454       0.01997410
Ag       1.60574235       2.60321230       0.08724472       0.00213971      -0.33745531      -0.01253767
3
Properties=species:S:1:pos:R:3:forces:R:3 charge_state=-1 total_charge=-1 energy=0.6293976658534869 pbc="F F F"
Ag       0.10661985      -0.13776694      -0.09378250       0.26424409       0.12361368       0.01692347
Ag       3.21817019       0.05137860       0.05150477      -0.27484076       0.16750438      -0.00497973
Ag       1.96860648       2.79950283       0.11355656       0.01059667      -0.29111806      -0.01194374
3
Properties=species:S:1:pos:R:3:forces:R:3 charge_state=-1 total_charge=-1 energy=0.5415245060761227 pbc="F F F"
Ag       0.02322962       0.01761809      -0.11525654       0.29422253       0.16914668      -0.00208959
Ag       3.01658983       0.01650228      -0.08559289      -0.28904392       0.17374141      -0.00799910
Ag       1.57936972       2.68894750      -0.17884965      -0.00517862      -0.34288809       0.01008868
3
Properties=species:S:1:pos:R:3:forces:R:3 charge_state=-1 total_charge=-1 energy=0.6100385716148984 pbc="F F F"
Ag       0.03573045      -0.04719319       0.10889506       0.28847406       0.15938729      -0.01624998
Ag       3.17309467      -0.10777448      -0.07153037      -0.28231221       0.16944646       0.01657316
Ag       1.65129311       2.66937712       0.02164586      -0.00616185      -0.32883375      -0.00032318
3
Properties=species:S:1:pos:R:3:forces:R:3 charge_state=-1 total_charge=-1 energy=0.615661122945123 pbc="F F F"
Ag       0.23890360       0.18434138       0.13634355       0.28557524       0.15947582      -0.01707431
Ag       3.41620993       0.00151433       0.04420740      -0.27453346       0.16139550       0.00068293
Ag       1.77146864       2.82389437      -0.04444987      -0.01104178      -0.32087131       0.01639138
3
Properties=species:S:1:pos:R:3:forces:R:3 charge_state=-1 total_charge=-1 energy=0.7585033983035367 pbc="F F F"
Ag      -0.16691324       0.05049873       0.08657552       0.21881534       0.10890883      -0.00777900
Ag       3.21330369      -0.03345012      -0.04749453      -0.21312448       0.11993018       0.00935540
Ag       1.60133374       3.06329677       0.04049817      -0.00569086      -0.22883901      -0.00157640
3
Properties=species:S:1:pos:R:3:forces:R:3 charge_state=-1 total_charge=-1 energy=0.7680713903045681 pbc="F F F"
Ag       0.03772963       0.16513510      -0.13268318       0.21079048       0.13466196       0.00663437
Ag       3.51770491      -0.07307414      -0.12799197      -0.18092944       0.09195644       0.00314528
Ag       1.64292747       3.07395191      -0.00194421      -0.02986104      -0.22661840      -0.00977966
3
Properties=species:S:1:pos:R:3:forces:R:3 charge_state=-1 total_charge=-1 energy=0.857254511685323 pbc="F F F"
Ag      -0.09325917      -0.02525682      -0.12477832       0.12449027       0.07545698       0.00124673
Ag       3.66324113      -0.14301414      -0.04400445      -0.11306992       0.06148806      -0.00347546
Ag       1.76307406       3.17521624      -0.14358622      -0.01142034      -0.13694504       0.00222874
3
Properties=species:S:1:pos:R:3:forces:R:3 charge_state=-1 total_charge=-1 energy=0.7795411562218217 pbc="F F F"
Ag       0.04049755       0.09097382      -0.02024575       0.20060487       0.12870559      -0.00045245
Ag       3.50608966       0.06471627       0.01260948      -0.18869432       0.08428974      -0.00328687
Ag       1.56026230       3.15914299      -0.06151337      -0.01191055      -0.21299534       0.00373932
3
Properties=species:S:1:pos:R:3:forces:R:3 charge_state=-1 total_charge=-1 energy=0.7317686281042977 pbc="F F F"
Ag       0.21113176      -0.01517851       0.05883172       0.23754264       0.14236134      -0.00270542
Ag       3.52809919      -0.06226995      -0.02081223      -0.22753981       0.10555457       0.00756863
Ag       1.70069991       2.97215244       0.08496021      -0.01000283      -0.24791591      -0.00486321
