8
Properties=species:S:1:pos:R:3:forces:R:3 energy=0.3010472353254414 pbc="F F F"
C        0.04967142      -0.01382643       0.06476885      -0.70231482      -0.04862513       0.10893740
H        1.65230299      -0.02341534      -0.02341370       1.14668145      -0.00984433      -0.06304069
H       -0.59207872       1.37574347      -0.04694744      -0.15219493       0.34789002      -0.02780084
H       -0.69574400      -1.34534177      -0.04657298      -0.15620527      -0.29471212      -0.02464392
C        3.02419623      -0.19132802      -0.17249178       0.43019689      -2.19085538      -0.14683832
H        4.44377125      -0.10128311       0.03142473      -0.58519333      -0.03663408      -0.08366118
H        2.15919759       1.15776963       0.14656488      -0.75377967       1.11594614       0.26552629
H        2.22742237      -1.29224718      -0.14247482       0.77280968       1.11683489      -0.02847873
8
Properties=species:S:1:pos:R:3:forces:R:3 energy=0.36325703896749484 pbc="F F F"
C       -0.05443827       0.01109226      -0.11509936      -0.36120995      -1.65177800      -0.16544831
H        1.53756980      -0.06006387      -0.02916937       1.04777693      -0.04883086       0.05124695
H       -0.81017066       1.48422782      -0.00134972      -0.73394931       1.44561683       0.11140968
H       -0.85577109      -1.21674551      -0.12208436       0.17015103       0.24751283       0.00133993
C        3.02088636      -0.19596701      -0.13281860       0.06973986      -1.90521746       0.06896277
H        4.51968612       0.07384666       0.01713683       0.32920844       0.05943789       0.03309578
H        2.23843517       1.26888963      -0.14785220      -0.79611824       1.43334509      -0.01421519
H        2.17801558      -1.34506388       0.10571222       0.27440124       0.41991367      -0.08639161
8
Properties=species:S:1:pos:R:3:forces:R:3 energy=0.44233550314199027 pbc="F F F"
C        0.03436183      -0.17630402       0.03240840       0.76242709      -2.99767600       0.22314383
H        1.46149177      -0.06769220       0.06116763      -0.58261842      -0.05106091      -0.01612202
H       -0.64690005       1.39212801      -0.08392175      -0.85411039       1.98657254      -0.14738846
H       -0.78092124      -1.26587366       0.09755451       0.80312743       1.06182758      -0.06357255
C        2.95208258      -0.01856590      -0.11063350       0.71764912      -0.91537318       0.01084103
H        4.38037934       0.08125258       0.13562400      -0.42743019      -0.03024395      -0.07339939
H        2.24279899       1.39935329       0.03616360      -0.44761344       0.84005026       0.08772171
H        2.18548802      -1.26286044       0.15380366       0.02856880       0.10590365      -0.02122414
8
Properties=species:S:1:pos:R:3:forces:R:3 energy=0.6546224188846886 pbc="F F F"
C       -0.00358260       0.15646437      -0.26197451      -2.68546334       2.26999970       0.36782109
H        1.58219025       0.00870471      -0.02990074       1.15657465      -0.10463808       0.16344960
H       -0.74082392       1.10024311      -0.02196719       1.65264997      -2.10427854      -0.53630968
H       -0.71428874      -1.15121060      -0.05182702      -0.02688741      -0.06423536       0.00946638
C        3.39283485      -0.05017570       0.09154021      -0.86121251      -0.99638108       0.11081424
H        5.00655932      -0.05297602       0.05132674       1.17329449      -0.00199458      -0.02907466
H        2.73339197       1.39586450      -0.07020531      -0.43649032       0.90656978      -0.10246542
H        2.69091800      -1.33821082      -0.14635149       0.02753446       0.09495816       0.01629845
8
Properties=species:S:1:pos:R:3:forces:R:3 energy=0.25822117555607194 pbc="F F F"
C        0.02961203       0.02610553       0.00051135      -0.62678924      -0.78595135      -0.00061067
H        1.47654129      -0.14153707      -0.04206453      -0.34211527       0.04393217       0.01092821
H       -0.78427145       1.21877227      -0.01612857       0.29791858      -0.42451520       0.00587209
H       -0.70959491      -1.11038141       0.01745778       0.76579964       1.16537009      -0.01739861
C        3.49943925      -0.00744459      -0.19187712      -0.03829547      -0.56147561      -0.20150517
H        4.97103282       0.00602302       0.24632421       0.37390782       0.00311524       0.11163543
H        2.70444811       1.32915473      -0.00347118      -0.37499428       0.59206748       0.08344025
H        2.60681641      -1.18471772       0.07519330      -0.05543178      -0.03254283       0.00763847
8
Properties=species:S:1:pos:R:3:forces:R:3 energy=1.1551650613571343 pbc="F F F"
C        0.07910319      -0.09093875       0.14027943       3.52042553       0.24462699       0.33497273
H        1.35981489       0.05868571       0.21904556      -1.97460490      -0.23461130      -0.12786923
H       -0.84905363       1.24237023       0.00996514      -0.75282929       1.09108933      -0.10673303
H       -0.80034757      -1.45406634       0.00685630      -0.70212200      -1.09931129      -0.10765290
C        3.36745384       0.04735924      -0.09194242      -3.43347448       3.16494973       0.05235925
H        5.12867765      -0.07832533      -0.03220615       2.68566307      -0.19144296       0.09117724
H        2.80503593       1.17591357       0.02274599       0.99411578      -2.04194599      -0.20581036
H        2.85439849      -1.45974832       0.01846339      -0.33717370      -0.93335452       0.06955630
8
Properties=species:S:1:pos:R:3:forces:R:3 energy=0.37996542192807387 pbc="F F F"
C        0.02598828       0.07818229      -0.12369507       1.53562750       0.66801390       0.16113817
H        1.36795434       0.05219416       0.02969847      -1.40586711       0.02746663      -0.16370380
H       -0.72495071       1.33364482      -0.06800247       0.16755727      -0.27087990      -0.01228727
H       -0.72677463      -1.26969275      -0.07143514      -0.23210422      -0.42552138       0.01626456
C        4.13394587       0.04738329      -0.11913035       1.08367058       0.97880740       0.04892192
H        5.51302378      -0.09746817       0.07870846      -0.93398738       0.09819425      -0.13461486
H        3.31322798       1.21693177       0.09633761       0.27273297      -0.41212472      -0.07700833
H        3.23864651      -1.21679398       0.18967930      -0.48762960      -0.66395619       0.16128961
8
Properties=species:S:1:pos:R:3:forces:R:3 energy=0.31840291315415253 pbc="F F F"
C       -0.02453881      -0.07537362      -0.08895144       0.72430097      -1.69608282       0.15262523
H        1.41841897      -0.00771017       0.03411520      -0.42955351      -0.02250474      -0.04047096
H       -0.72233092       1.38171832       0.00130019      -0.51996515       1.09606775       0.06712708
H       -0.60464659      -1.32546568       0.27201692       0.29375210       0.62088215      -0.18025844
C        4.00993516      -0.08571576      -0.10708925       0.93897009       0.09365609      -0.13234780
H        5.49561566      -0.02234628       0.07140005       0.01499891       0.00023412       0.00183949
H        3.24469218       1.29171711      -0.08467937      -0.40144493       0.69220636       0.01118992
H        3.04588370      -1.34365150       0.08563988      -0.62105849      -0.78445891       0.12029549
8
Properties=species:S:1:pos:R:3:forces:R:3 energy=0.7881122494619325 pbc="F F F"
C        0.02140937      -0.12457388       0.01731809      -1.23270985      -1.90459567       0.14078148
H        1.53853174      -0.08838574       0.01537251       0.24615157       0.00499251       0.00031754
H       -0.74417913       1.18470297       0.03577874      -0.09967871       0.18146419       0.00245951
H       -0.69392155      -1.19069488       0.10538021       1.16001475       1.71865824      -0.14211758
C        3.80960148      -0.09378250       0.05150353      -2.49670363      -2.52475430      -0.45012139
H        5.49874702       0.05150477       0.38527315       2.25626243       0.19384340       0.44614050
H        3.25445747       1.41255656       0.09540018      -0.39356329       1.02301048       0.02908744
H        3.26250755      -1.33052692       0.07589692       0.56022672       1.30738115      -0.02654750
8
Properties=species:S:1:pos:R:3:forces:R:3 energy=0.6322230099518007 pbc="F F F"
C       -0.07728252      -0.02368186      -0.04853635      -2.39493108       0.50134645       0.05529874
H        1.50818741       0.23146586      -0.18672652       1.15743892       0.18134201      -0.09821557
H       -0.68137398       1.13772841      -0.04719319       0.85969300      -1.64490989      -0.00153530
H       -0.64110494      -1.29257200      -0.10777448       0.43242292       0.96134376       0.04521624
C        4.34952226       0.06795977      -0.07303666      -1.01994257       1.91568944      -0.20126513
H        5.94269849       0.00455718      -0.06516003       0.97884870      -0.03925953       0.00482044
H        3.88544704       1.36239190      -0.20251426       0.37070995      -1.07023004       0.10690336
H        3.68969806      -1.36517865       0.08524333      -0.38423983      -0.80532220       0.08877722
8
Properties=species:S:1:pos:R:3:forces:R:3 energy=1.8443943208912492 pbc="F F F"
C       -0.07925207      -0.01147364       0.05049873      -1.76893678       1.04376379       0.11924282
H        1.58657552      -0.12002964      -0.03345012       1.76245334      -0.11252512      -0.08865320
H       -0.79749453       1.23366708       0.17654542       0.26609631      -0.45306224      -0.04623753
H       -0.70950183      -1.42508840       0.09178619      -0.20860016      -0.47723526       0.01363746
C        4.63326825       0.10324653      -0.15193700       5.28240927       3.64953911       0.01755557
H        5.87262922       0.12669111      -0.07076695      -2.51620118      -0.04787502      -0.16472101
H        3.71543457       1.37646341      -0.09269305      -0.44688485       0.60090203       0.02829206
H        3.66510010      -1.62312673      -0.10243876      -2.37033596      -4.20350729       0.12088382
8
Properties=species:S:1:pos:R:3:forces:R:3 energy=0.3945375914412822 pbc="F F F"
C       -0.02525682      -0.12477832       0.16324113       0.54251973       0.63269245      -0.16346756
H        1.35698586      -0.04400445       0.01307406      -0.99660581      -0.06082519       0.11109161
H       -0.60587267       1.15541378       0.11631638       0.37049696      -0.80729019       0.03009038
H       -0.74897669      -1.39715087       0.04621035       0.13821889       0.23445722       0.02200861
C        4.44095860      -0.06002169       0.00698021       0.56691113       1.61713556       0.14444912
H        5.88252127       0.01135173       0.06621307      -0.51098403      -0.02618394      -0.02137488
H        3.82965431       1.17521845       0.21330334       0.43395376      -0.90212961      -0.15100537
H        3.47584385      -1.31417851       0.05883172      -0.54451063      -0.68785632       0.02820810
8
Properties=species:S:1:pos:R:3:forces:R:3 energy=0.46974330398976333 pbc="F F F"
C        0.02809919      -0.06226995      -0.02081223       0.06869121      -0.96099992       0.12449377
H        1.45069991      -0.05893648       0.08496021      -0.67002776      -0.00183099      -0.05144512
H       -0.71429845       1.22970904       0.08995999       0.01149319      -0.01209693      -0.00148923
H       -0.71927005      -1.21771379       0.06296288       0.63516667       0.97462487      -0.07116620
C        4.81183734      -0.05601810       0.07472936      -2.13384485       0.30775367       0.05744419
H        6.45577387      -0.00209016       0.01173274       1.49216871       0.04854616      -0.05726627
H        4.27250333       1.23984286       0.05470974       0.34135327      -0.84584617       0.01307212
H        4.12451758      -1.32076812       0.10987769       0.25499957       0.48984930      -0.01364325
8
Properties=species:S:1:pos:R:3:forces:R:3 energy=0.7206730592254834 pbc="F F F"
C        0.08254163       0.08135096       0.13054788       1.18357792       1.76821232      -0.18911803
H        1.50210038       0.06819530      -0.03102668      -0.64501417       0.00568649       0.07590932
H       -0.71758336       1.28598569       0.00969960       0.24849371      -0.36755104       0.03717858
H       -0.69048430      -1.38082207       0.20923873      -0.73978071      -1.40763835       0.07600063
C        4.79413510      -0.12141886       0.11581109      -3.05239339      -1.70273649      -0.14010376
H        6.47390311       0.06241198       0.06283455       1.92585220       0.21038779      -0.06044494
H        4.14351216       1.20927456       0.00758046       0.03520948      -0.09530774       0.00812655
H        4.07702067      -1.20148803      -0.01470574       1.04405494       1.58894702       0.19245164
8
Properties=species:S:1:pos:R:3:forces:R:3 energy=0.5534544595729943 pbc="F F F"
C       -0.08254972      -0.03213858       0.04129315      -0.28527460       1.14348108       0.04263510
H        1.44362754      -0.08222204       0.02436872       0.32784340      -0.00987747      -0.00314741
H       -0.72550334       1.24830568      -0.04710383       0.27200793      -0.53401987       0.03726494
H       -0.72679501      -1.44380843      -0.14074638      -0.26990531      -0.59925348      -0.07693254
C        4.82289242      -0.02134472       0.03109076      -3.05075731       0.20494536      -0.00857296
H        6.54227246       0.08576596      -0.01599385       2.25919199       0.14055447      -0.06171156
H        4.14283522       1.19874706      -0.00185131       0.46707682      -0.85706648       0.02343585
H        4.11587098      -1.26672814      -0.08272309       0.27981708       0.51123639       0.04702858
8
Properties=species:S:1:pos:R:3:forces:R:3 energy=1.5614496856176263 pbc="F F F"
C        0.05193465       0.15327389      -0.01087601       0.49355299       2.60073288      -0.05596845
H        1.54017117       0.06901440      -0.04012205      -0.03592972       0.00256402       0.00115649
H       -0.72759075       1.30025924       0.00976761       0.61153745      -0.89371635      -0.01611861
H       -0.82730098      -1.29654898       0.04979983      -1.03359224      -1.71058789       0.07157149
C        5.51353541       0.09592708       0.21531825       3.19190182       4.57922652      -0.09066577
H        6.79168630       0.08723206       0.01833420      -1.98995233       0.01299254       0.30761266
H        4.83740135       1.21817017      -0.08397218       0.75052484      -1.26006303       0.33709759
H        4.55848179      -1.51138957      -0.05257550      -1.98804280      -3.33114869      -0.55468541
8
Properties=species:S:1:pos:R:3:forces:R:3 energy=1.555065814783358 pbc="F F F"
C       -0.07591327       0.01503938       0.03417560      -3.19452301      -2.38720521       0.06807037
H        1.68761708       0.09504238      -0.05769037       2.71681996       0.12283967      -0.14031555
H       -0.83984147       1.34819192      -0.13202332      -0.24146641       0.42736990      -0.05281940
H       -0.56685412      -1.18105599      -0.04691757       0.75769798       1.83716178       0.12510221
C        5.19710760       0.13538724      -0.01145398      -3.63865335       3.45283356       0.03882499
H        6.99220268      -0.15944277      -0.05993750       3.18238009      -0.52203952      -0.08594032
H        4.61894542       1.30369806      -0.04500655       0.83665206      -1.70908326       0.04918540
H        4.68070605      -1.40576204      -0.01423795      -0.41890732      -1.22187693      -0.00210770
8
Properties=species:S:1:pos:R:3:forces:R:3 energy=1.510258744294313 pbc="F F F"
C        0.01202956       0.05144388       0.07116149       0.18362051       0.35992640       0.08713659
H        1.38753579      -0.15341142       0.12776768      -1.00839424       0.15307927      -0.04247272
H       -0.71676860       1.22415135       0.15511520       0.59264194      -0.94624774      -0.06797875
H       -0.73843254      -1.18107028       0.00675185       0.26751234       0.43377989       0.02241017
C        5.57449585       0.17553408      -0.02489641       4.21522831       2.95876354       0.44777832
H        6.96557815       0.06453759       0.13686316      -0.89796421       0.07170710      -0.10431273
H        4.52192871       1.36760515       0.10584245      -0.66292616       0.74164802       0.08136705
H        4.44254710      -1.41732585      -0.20392322      -2.68971849      -3.77265649      -0.42392792
8
Properties=species:S:1:pos:R:3:forces:R:3 energy=0.5479356945616202 pbc="F F F"
C       -0.02694068       0.07175423       0.15023571       0.50749081       2.02122693       0.36427678
H        1.50740948       0.16286155      -0.13801015       0.67520496       0.03944399      -0.12413108
H       -0.92033824       1.29344523       0.03840654      -0.12522169       0.17554652      -0.01537914
H       -0.75326947      -1.50574421      -0.00891200      -1.02643661      -2.23627656      -0.22503626
C        5.71165831       0.06696725       0.03665982      -0.48093378       0.58048155       0.05439015
H        7.24811728      -0.05138669      -0.10592135       0.51110123      -0.03890899      -0.04705159
H        5.08583735       1.39451423      -0.09857260       0.08505532      -0.19642917       0.02057824
H        5.14250991      -1.35202576      -0.07928728      -0.14626023      -0.34508427      -0.02764709
8
Properties=species:S:1:pos:R:3:forces:R:3 energy=1.2140550994536703 pbc="F F F"
C       -0.01070304      -0.10352423      -0.05536493       0.73042910      -2.09793575       0.10965484
H        1.38021221       0.19647251       0.00352636      -0.68500802      -0.15134355      -0.02970634
H       -0.81997255       1.32039799      -0.01123280      -0.69957175       1.23557057       0.03797465
H       -0.77209696      -1.23758333       0.07575077       0.68471617       1.01353489      -0.11762157
C        5.78905515      -0.05758182      -0.02750517      -0.61285854      -2.29927040       0.63941729
H        7.11191315      -0.15151911       0.13668743      -1.56799038       0.11109447      -0.19522029
H        5.25660203       1.27409640       0.05765570       0.21017774      -0.54218183      -0.03551207
H        5.12323028      -0.99111192       0.11195749       1.94010568       2.73053159      -0.40898652
8
Properties=species:S:1:pos:R:3:forces:R:3 energy=0.31105297521203085 pbc="F F F"
C       -0.01279176      -0.09555404      -0.16064463      -0.50411936      -1.25993911       0.08561013
H        1.52034636      -0.07563507      -0.14222537       0.38510922       0.00515771       0.00401037
H       -0.81465729       1.19084520       0.16871416      -0.28277456       0.45913330       0.11656329
H       -0.66183602      -1.29979726       0.14799441       0.43231508       0.79582388      -0.20503496
C        5.84984209      -0.08612842       0.15231241      -0.64189774      -0.32845620       0.05172252
H        7.39599627      -0.10372462      -0.01903387       0.59196271      -0.00608259      -0.06548025
H        5.00454344       1.16072003       0.09261775      -0.07311479       0.09691887      -0.00449436
H        5.28304693      -1.43885676       0.05629692       0.09251945       0.23744414       0.01710326
8
Properties=species:S:1:pos:R:3:forces:R:3 energy=0.582993362456531 pbc="F F F"
C       -0.06506426      -0.04871254      -0.05923939       0.32656004       0.27057608      -0.02905563
H        1.41360092       0.00485216      -0.08309501      -0.14937407      -0.00632110       0.00240488
H       -0.72295432       1.29397619      -0.02389480       0.00243705      -0.00023957      -0.00018881
H       -0.84075637      -1.35667713       0.07553912      -0.15398278      -0.26435678       0.02702956
C        6.36588119      -0.09775552       0.00993323       1.75650422      -0.19542708       0.09701403
H        7.89092819      -0.16694053       0.05433602       0.31121602      -0.01416651       0.00914958
H        5.49952710       1.35605987      -0.07632592      -1.01751127       1.69822763      -0.10075801
H        5.38530126      -1.46175424       0.00480849      -1.07584920      -1.48829268      -0.00559559
8
Properties=species:S:1:pos:R:3:forces:R:3 energy=0.6325732583622883 pbc="F F F"
C        0.02597225      -0.09043166       0.06385925       1.74080496      -1.99475264      -0.21469174
H        1.33384799      -0.00660798      -0.12110162      -1.68220398      -0.10885033       0.23995418
H       -0.81518361       1.30373987      -0.08604134      -0.71200810       1.18506603      -0.12669905
H       -0.78845555      -1.19837072      -0.05768919       0.67874231       0.91828564       0.10163670
C        6.39935868      -0.11297069       0.05298042      -0.38797800      -0.90973173       0.06549773
H        7.95994634      -0.24716445      -0.07968953       0.75175186      -0.06465398      -0.06379776
H        5.62349669       1.27869546       0.03711459      -0.47857437       0.84942387      -0.00945080
H        5.50539096      -1.29034102      -0.01556772       0.08946532       0.12521315       0.00755074
8
Properties=species:S:1:pos:R:3:forces:R:3 energy=0.9494395727526188 pbc="F F F"
C        0.11677821       0.02544208       0.03376027       0.99568320      -0.79018938      -0.12967776
H        1.45881230      -0.04876062      -0.04325582      -1.47131774       0.08262824       0.08500777
H       -0.71055479       1.25690155       0.02897749       0.06966049      -0.09869463       0.00056798
H       -0.54245992      -1.21188753      -0.03260235       0.43227493       0.80631818       0.04345100
C        6.43591087      -0.04080754      -0.20381245       3.07736835      -2.60393828      -0.09455483
H        7.71498084      -0.18707919      -0.03515135      -1.93281606       0.22134184      -0.25515348
H        5.56763131       1.46664373       0.03269274      -1.28578986       2.22286132       0.34843762
H        5.54387942      -1.21605944      -0.22111353       0.11493669       0.15967271       0.00192170
8
Properties=species:S:1:pos:R:3:forces:R:3 energy=0.5159765068784019 pbc="F F F"
C        0.02356146       0.07708652      -0.14785862       0.09946938      -0.10739566      -0.23718384
H        1.61437540       0.03384964      -0.04152879       0.99220648      -0.02687227       0.06552640
H       -0.68672181       1.52606929       0.01818663      -0.54930700       1.12482936       0.12854750
H       -0.72517794      -1.34493609      -0.08498444      -0.51976418      -0.99108012       0.04346307
C        6.87250727      -0.08560838       0.00715662       1.70222532       0.45684543       0.01462540
H        8.24170794       0.04789798       0.03336621      -1.18579197      -0.11646014      -0.02271910
H        6.14322768       1.24799836      -0.02698749      -0.12321038       0.21586355      -0.00565080
H        5.94159731      -1.34342933       0.03773005      -0.41582765      -0.55573015       0.01339138
8
Properties=species:S:1:pos:R:3:forces:R:3 energy=0.8887433905528719 pbc="F F F"
C        0.07569886      -0.09221653       0.08696059      -1.08221806      -2.13544615      -0.02475532
H        1.63556379       0.04134349       0.18767958       0.73102997       0.06191732       0.04709246
H       -0.82737892       1.17453453      -0.17787202      -0.46701168       0.65945463      -0.13737121
H       -0.60039557      -1.23356343      -0.00555847       0.84119054       1.41418096       0.11522768
C        6.81747055      -0.11254890       0.24457520      -0.89155268      -3.29340430       0.06478700
H        8.30239580       0.01093948       0.07257666       0.04122121       0.00289368      -0.00405079
H        6.08757461       1.32138840      -0.07904745      -0.64991196       1.26671318      -0.28511755
H        6.08662052      -1.11079755       0.13454200       1.47725265       2.02369069       0.22418773
8
Properties=species:S:1:pos:R:3:forces:R:3 energy=1.7212787510707745 pbc="F F F"
C        0.15931866      -0.05112157      -0.09896048       4.45016045      -1.54268928       0.13567013
H        1.48742131       0.00557249       0.10941915      -1.46695575      -0.06303675      -0.23170730
H       -0.91924646       1.45195503      -0.01580079      -2.06407090       2.88044133       0.15911364
H       -0.79268811      -1.40021044      -0.16548567      -0.89649967      -1.27490185      -0.06315028
C        6.87179074       0.00733180      -0.12899609       2.73170467       3.10238240       0.22633735
H        8.15996581      -0.03357847       0.16690215      -1.67943408       0.05357814      -0.38629225
H        6.01351455       1.14868570      -0.02457431       0.37545070      -0.50568888      -0.04711267
H        6.01220133      -1.56868866      -0.00542949      -1.45035542      -2.65008512       0.20714138
8
Properties=species:S:1:pos:R:3:forces:R:3 energy=0.9644447870224602 pbc="F F F"
C       -0.02309345       0.06962064       0.18489561      -1.97370050       2.02288666       0.14046511
H        1.61265650      -0.02688887      -0.11065259       1.66331529      -0.09791665      -0.29860946
H       -0.49266402       1.30492184       0.00139293       0.56631031      -1.48550481       0.22175927
H       -0.75241251      -1.27919152      -0.01443604      -0.23597263      -0.43948171      -0.06404589
C        7.20579169      -0.05468589      -0.00327533      -0.25457675      -3.58395286      -0.05004383
H        8.70881542      -0.07128458       0.01064302       0.07388448      -0.00055930       0.00148889
H        6.48766017       1.44939930      -0.26509698      -0.81630690       1.69995629      -0.29527857
H        6.62230858      -1.17439148      -0.20733902       0.97704669       1.88457238       0.34426448
8
Properties=species:S:1:pos:R:3:forces:R:3 energy=0.3904874508346345 pbc="F F F"
C       -0.03426876      -0.03714409      -0.14075117       0.82957005      -0.40591921      -0.21715158
H        1.42221833      -0.11105758       0.17522704      -0.02768017       0.00166496      -0.00841652
H       -0.65643216       1.42615551       0.07216721      -0.41738785       0.98617949       0.14250677
H       -0.86290518      -1.35145203       0.04893746      -0.36487639      -0.58159760       0.08294951
C        7.14094511       0.07129984      -0.02403254      -1.15238346      -0.66560320      -0.03922722
H        8.72567581       0.07109600       0.04442633       0.89936968       0.00006866       0.03898930
H        6.47706128       1.41493298      -0.10810633      -0.02836726       0.04768333      -0.00294366
H        6.57475146      -1.23968987      -0.03095464       0.26175540       0.61752357       0.00329340
8
Properties=species:S:1:pos:R:3:forces:R:3 energy=0.6606881436338498 pbc="F F F"
C        0.03261330      -0.12511136       0.09240270       0.78751512      -0.55015344       0.10870953
H        1.48150979      -0.05227230       0.10490092      -0.43971063      -0.02222119      -0.00369382
H       -0.82043437       1.15815387      -0.15566292      -0.35205876       0.53336039      -0.10288878
H       -0.68939900      -1.42704294       0.17547942       0.02441029       0.03961327      -0.00231824
C        7.05496495       0.16964564       0.02110175      -2.39762974       2.49808373      -0.01725141
H        8.75348658      -0.05449191       0.03991361       2.14785454      -0.28284276       0.02386223
H        6.50939442       1.40933019       0.01142276       0.56091616      -1.28560100       0.01009662
H        6.52818807      -1.33536122      -0.00569456      -0.33129698      -0.93023900      -0.01651613
8
Properties=species:S:1:pos:R:3:forces:R:3 energy=0.7424023484627553 pbc="F F F"
C        0.03078018      -0.17101684      -0.13481854      -0.26847858      -2.57982526      -0.11704831
H        1.57432641       0.01708654      -0.01839833       0.63212428       0.07544020       0.04703555
H       -0.74815661       1.33375817      -0.05397597      -0.91599111       1.77311800       0.09499338
H       -0.82783047      -1.27941547      -0.09783728       0.56947559       0.73115850      -0.02472321
C        7.77766738      -0.17025836       0.10291556       0.62652919      -1.92947440       0.37173160
H        9.28410185       0.02560297       0.09826910       0.23010404       0.02875321      -0.00014200
H        7.15338955       1.40043701      -0.18408742      -0.79739423       1.99547970      -0.36433957
H        6.85888441      -1.36148186       0.00260911      -0.07636918      -0.09464994      -0.00750743
8
Properties=species:S:1:pos:R:3:forces:R:3 energy=0.4566142248647749 pbc="F F F"
C        0.05176590      -0.07257438       0.01867668       1.41396437      -0.11366064      -0.13314471
H        1.42446171      -0.06115178      -0.14066611      -1.11763280      -0.00898859       0.13038546
H       -0.84232332       1.16383154      -0.09758733      -0.19926180       0.27881751      -0.02615185
H       -0.64463582      -1.39393989       0.26323821      -0.08015465      -0.15605808       0.02898581
C        7.78617390       0.01848361      -0.08583578      -0.10845801       1.79320199      -0.05102900
H        9.30687309      -0.05756378       0.01220098       0.29759558      -0.01536321       0.01842087
H        7.24285056       1.28939401       0.11492733       0.37889648      -0.89533649      -0.14233553
H        6.91652446      -1.30249885       0.17708006      -0.58494917      -0.88261250       0.17486893
8
Properties=species:S:1:pos:R:3:forces:R:3 energy=1.0894575886199562 pbc="F F F"